(written by ASE)

294 atoms
2 atom types

0.0                      30  xlo xhi
0.0                      30  ylo yhi
0.0                      30  zlo zhi

Masses

     1      196.96656894933145 # Au
     2      63.545999983653154 # Cu

Atoms # atomic

     1   1       10.42405817328032       10.42405817328032                      15
     2   1      12.878182069711107       10.42405817328032      13.483268019402448
     3   1      12.878182069711107       10.42405817328032      16.516731980597552
     4   1      7.9699342768495338       10.42405817328032      13.483268019402448
     5   1      7.9699342768495338       10.42405817328032      16.516731980597552
     6   1      8.9073261926827669      12.878182069711107                      15
     7   1      11.940790153877874      12.878182069711107                      15
     8   1      8.9073261926827669      7.9699342768495338                      15
     9   1      11.940790153877874      7.9699342768495338                      15
    10   1       10.42405817328032      8.9073261926827669      17.454123896430787
    11   1       10.42405817328032      11.940790153877874      17.454123896430787
    12   1       10.42405817328032      8.9073261926827669      12.545876103569213
    13   1       10.42405817328032      11.940790153877874      12.545876103569213
    14   1      15.332305966141892       10.42405817328032      11.966536038804895
    15   1      15.332305966141892       10.42405817328032                      15
    16   1      15.332305966141892       10.42405817328032      18.033463961195103
    17   1      5.5158103804187482       10.42405817328032      11.966536038804895
    18   1      5.5158103804187482       10.42405817328032                      15
    19   1      5.5158103804187482       10.42405817328032      18.033463961195103
    20   1      7.3905942120852153      15.332305966141892                      15
    21   1       10.42405817328032      15.332305966141892                      15
    22   1      13.457522134475425      15.332305966141892                      15
    23   1      7.3905942120852153      5.5158103804187482                      15
    24   1       10.42405817328032      5.5158103804187482                      15
    25   1      13.457522134475425      5.5158103804187482                      15
    26   1       10.42405817328032      7.3905942120852153      19.908247792861573
    27   1       10.42405817328032       10.42405817328032      19.908247792861573
    28   1       10.42405817328032      13.457522134475425      19.908247792861573
    29   1       10.42405817328032      7.3905942120852153      10.091752207138427
    30   1       10.42405817328032       10.42405817328032      10.091752207138427
    31   1       10.42405817328032      13.457522134475425      10.091752207138427
    32   1      12.878182069711107      8.9073261926827669      18.970855877028338
    33   1      12.878182069711107      11.940790153877874      18.970855877028338
    34   1      12.878182069711107      8.9073261926827669      11.029144122971662
    35   1      12.878182069711107      11.940790153877874      11.029144122971662
    36   1      7.9699342768495338      8.9073261926827669      18.970855877028338
    37   1      7.9699342768495338      11.940790153877874      18.970855877028338
    38   1      7.9699342768495338      8.9073261926827669      11.029144122971662
    39   1      7.9699342768495338      11.940790153877874      11.029144122971662
    40   1      14.394914050308659      12.878182069711107      13.483268019402448
    41   1      14.394914050308659      12.878182069711107      16.516731980597552
    42   1      6.4532022962519822      12.878182069711107      13.483268019402448
    43   1      6.4532022962519822      12.878182069711107      16.516731980597552
    44   1      14.394914050308659      7.9699342768495338      13.483268019402448
    45   1      14.394914050308659      7.9699342768495338      16.516731980597552
    46   1      6.4532022962519822      7.9699342768495338      13.483268019402448
    47   1      6.4532022962519822      7.9699342768495338      16.516731980597552
    48   1      8.9073261926827669      14.394914050308659      17.454123896430787
    49   1      11.940790153877874      14.394914050308659      17.454123896430787
    50   1      8.9073261926827669      6.4532022962519822      17.454123896430787
    51   1      11.940790153877874      6.4532022962519822      17.454123896430787
    52   1      8.9073261926827669      14.394914050308659      12.545876103569213
    53   1      11.940790153877874      14.394914050308659      12.545876103569213
    54   1      8.9073261926827669      6.4532022962519822      12.545876103569213
    55   1      11.940790153877874      6.4532022962519822      12.545876103569213
    56   1      17.786429862572678       10.42405817328032      10.449804058207341
    57   1      17.786429862572678       10.42405817328032      13.483268019402448
    58   1      17.786429862572678       10.42405817328032      16.516731980597552
    59   1      17.786429862572678       10.42405817328032      19.550195941792659
    60   1      3.0616864839879616       10.42405817328032      10.449804058207341
    61   1      3.0616864839879616       10.42405817328032      13.483268019402448
    62   1      3.0616864839879616       10.42405817328032      16.516731980597552
    63   1      3.0616864839879616       10.42405817328032      19.550195941792659
    64   1      5.8738622314876627      17.786429862572678                      15
    65   1      8.9073261926827669      17.786429862572678                      15
    66   1      11.940790153877874      17.786429862572678                      15
    67   1      14.974254115072977      17.786429862572678                      15
    68   1      5.8738622314876627      3.0616864839879616                      15
    69   1      8.9073261926827669      3.0616864839879616                      15
    70   1      11.940790153877874      3.0616864839879616                      15
    71   1      14.974254115072977      3.0616864839879616                      15
    72   1       10.42405817328032      5.8738622314876627       22.36237168929236
    73   1       10.42405817328032      8.9073261926827669       22.36237168929236
    74   1       10.42405817328032      11.940790153877874       22.36237168929236
    75   1       10.42405817328032      14.974254115072977       22.36237168929236
    76   1       10.42405817328032      5.8738622314876627      7.6376283107076413
    77   1       10.42405817328032      8.9073261926827669      7.6376283107076413
    78   1       10.42405817328032      11.940790153877874      7.6376283107076413
    79   1       10.42405817328032      14.974254115072977      7.6376283107076413
    80   1      15.332305966141892      8.9073261926827669       20.48758785762589
    81   1      12.878182069711107      7.3905942120852153      21.424979773459125
    82   1      15.332305966141892      11.940790153877874       20.48758785762589
    83   1      12.878182069711107       10.42405817328032      21.424979773459125
    84   1      12.878182069711107      13.457522134475425      21.424979773459125
    85   1      15.332305966141892      8.9073261926827669      9.5124121423741084
    86   1      12.878182069711107      7.3905942120852153      8.5750202265408753
    87   1      15.332305966141892      11.940790153877874      9.5124121423741084
    88   1      12.878182069711107       10.42405817328032      8.5750202265408753
    89   1      12.878182069711107      13.457522134475425      8.5750202265408753
    90   1      5.5158103804187482      8.9073261926827669       20.48758785762589
    91   1      7.9699342768495338      7.3905942120852153      21.424979773459125
    92   1      5.5158103804187482      11.940790153877874       20.48758785762589
    93   1      7.9699342768495338       10.42405817328032      21.424979773459125
    94   1      7.9699342768495338      13.457522134475425      21.424979773459125
    95   1      5.5158103804187482      8.9073261926827669      9.5124121423741084
    96   1      7.9699342768495338      7.3905942120852153      8.5750202265408753
    97   1      5.5158103804187482      11.940790153877874      9.5124121423741084
    98   1      7.9699342768495338       10.42405817328032      8.5750202265408753
    99   1      7.9699342768495338      13.457522134475425      8.5750202265408753
   100   1      15.911646030906212      15.332305966141892      13.483268019402448
   101   1      16.849037946739443      12.878182069711107      11.966536038804895
   102   1      15.911646030906212      15.332305966141892      16.516731980597552
   103   1      16.849037946739443      12.878182069711107                      15
   104   1      16.849037946739443      12.878182069711107      18.033463961195103
   105   1      4.9364703156544287      15.332305966141892      13.483268019402448
   106   1      3.9990783998211956      12.878182069711107      11.966536038804895
   107   1      4.9364703156544287      15.332305966141892      16.516731980597552
   108   1      3.9990783998211956      12.878182069711107                      15
   109   1      3.9990783998211956      12.878182069711107      18.033463961195103
   110   1      15.911646030906212      5.5158103804187482      13.483268019402448
   111   1      16.849037946739443      7.9699342768495338      11.966536038804895
   112   1      15.911646030906212      5.5158103804187482      16.516731980597552
   113   1      16.849037946739443      7.9699342768495338                      15
   114   1      16.849037946739443      7.9699342768495338      18.033463961195103
   115   1      4.9364703156544287      5.5158103804187482      13.483268019402448
   116   1      3.9990783998211956      7.9699342768495338      11.966536038804895
   117   1      4.9364703156544287      5.5158103804187482      16.516731980597552
   118   1      3.9990783998211956      7.9699342768495338                      15
   119   1      3.9990783998211956      7.9699342768495338      18.033463961195103
   120   1      8.9073261926827669      15.911646030906212      19.908247792861573
   121   1      7.3905942120852153      16.849037946739443      17.454123896430787
   122   1      11.940790153877874      15.911646030906212      19.908247792861573
   123   1       10.42405817328032      16.849037946739443      17.454123896430787
   124   1      13.457522134475425      16.849037946739443      17.454123896430787
   125   1      8.9073261926827669      4.9364703156544287      19.908247792861573
   126   1      7.3905942120852153      3.9990783998211956      17.454123896430787
   127   1      11.940790153877874      4.9364703156544287      19.908247792861573
   128   1       10.42405817328032      3.9990783998211956      17.454123896430787
   129   1      13.457522134475425      3.9990783998211956      17.454123896430787
   130   1      8.9073261926827669      15.911646030906212      10.091752207138427
   131   1      7.3905942120852153      16.849037946739443      12.545876103569213
   132   1      11.940790153877874      15.911646030906212      10.091752207138427
   133   1       10.42405817328032      16.849037946739443      12.545876103569213
   134   1      13.457522134475425      16.849037946739443      12.545876103569213
   135   1      8.9073261926827669      4.9364703156544287      10.091752207138427
   136   1      7.3905942120852153      3.9990783998211956      12.545876103569213
   137   1      11.940790153877874      4.9364703156544287      10.091752207138427
   138   1       10.42405817328032      3.9990783998211956      12.545876103569213
   139   1      13.457522134475425      3.9990783998211956      12.545876103569213
   140   1      14.394914050308659      6.4532022962519822      18.970855877028338
   141   1      14.394914050308659      14.394914050308659      18.970855877028338
   142   1      14.394914050308659      6.4532022962519822      11.029144122971662
   143   1      14.394914050308659      14.394914050308659      11.029144122971662
   144   1      6.4532022962519822      6.4532022962519822      18.970855877028338
   145   1      6.4532022962519822      14.394914050308659      18.970855877028338
   146   1      6.4532022962519822      6.4532022962519822      11.029144122971662
   147   1      6.4532022962519822      14.394914050308659      11.029144122971662
   148   2      20.424058173280322      20.424058173280322                      15
   149   2      22.595476620857561      20.424058173280322      13.657989595598734
   150   2      22.595476620857561      20.424058173280322      16.342010404401265
   151   2       18.25263972570308      20.424058173280322      13.657989595598734
   152   2       18.25263972570308      20.424058173280322      16.342010404401265
   153   2      19.082047768879054      22.595476620857561                      15
   154   2      21.766068577681587      22.595476620857561                      15
   155   2      19.082047768879054       18.25263972570308                      15
   156   2      21.766068577681587       18.25263972570308                      15
   157   2      20.424058173280322      19.082047768879054      17.171418447577238
   158   2      20.424058173280322      21.766068577681587      17.171418447577238
   159   2      20.424058173280322      19.082047768879054       12.82858155242276
   160   2      20.424058173280322      21.766068577681587       12.82858155242276
   161   2      24.766895068434799      20.424058173280322      12.315979191197467
   162   2      24.766895068434799      20.424058173280322                      15
   163   2      24.766895068434799      20.424058173280322      17.684020808802533
   164   2      16.081221278125842      20.424058173280322      12.315979191197467
   165   2      16.081221278125842      20.424058173280322                      15
   166   2      16.081221278125842      20.424058173280322      17.684020808802533
   167   2      17.740037364477789      24.766895068434799                      15
   168   2      20.424058173280322      24.766895068434799                      15
   169   2      23.108078982082851      24.766895068434799                      15
   170   2      17.740037364477789      16.081221278125842                      15
   171   2      20.424058173280322      16.081221278125842                      15
   172   2      23.108078982082851      16.081221278125842                      15
   173   2      20.424058173280322      17.740037364477789       19.34283689515448
   174   2      20.424058173280322      20.424058173280322       19.34283689515448
   175   2      20.424058173280322      23.108078982082851       19.34283689515448
   176   2      20.424058173280322      17.740037364477789       10.65716310484552
   177   2      20.424058173280322      20.424058173280322       10.65716310484552
   178   2      20.424058173280322      23.108078982082851       10.65716310484552
   179   2      22.595476620857561      19.082047768879054      18.513428851978507
   180   2      22.595476620857561      21.766068577681587      18.513428851978507
   181   2      22.595476620857561      19.082047768879054      11.486571148021493
   182   2      22.595476620857561      21.766068577681587      11.486571148021493
   183   2       18.25263972570308      19.082047768879054      18.513428851978507
   184   2       18.25263972570308      21.766068577681587      18.513428851978507
   185   2       18.25263972570308      19.082047768879054      11.486571148021493
   186   2       18.25263972570308      21.766068577681587      11.486571148021493
   187   2      23.937487025258825      22.595476620857561      13.657989595598734
   188   2      23.937487025258825      22.595476620857561      16.342010404401265
   189   2      16.910629321301816      22.595476620857561      13.657989595598734
   190   2      16.910629321301816      22.595476620857561      16.342010404401265
   191   2      23.937487025258825       18.25263972570308      13.657989595598734
   192   2      23.937487025258825       18.25263972570308      16.342010404401265
   193   2      16.910629321301816       18.25263972570308      13.657989595598734
   194   2      16.910629321301816       18.25263972570308      16.342010404401265
   195   2      19.082047768879054      23.937487025258825      17.171418447577238
   196   2      21.766068577681587      23.937487025258825      17.171418447577238
   197   2      19.082047768879054      16.910629321301816      17.171418447577238
   198   2      21.766068577681587      16.910629321301816      17.171418447577238
   199   2      19.082047768879054      23.937487025258825       12.82858155242276
   200   2      21.766068577681587      23.937487025258825       12.82858155242276
   201   2      19.082047768879054      16.910629321301816       12.82858155242276
   202   2      21.766068577681587      16.910629321301816       12.82858155242276
   203   2      26.938313516012037      20.424058173280322      10.973968786796203
   204   2      26.938313516012037      20.424058173280322      13.657989595598734
   205   2      26.938313516012037      20.424058173280322      16.342010404401265
   206   2      26.938313516012037      20.424058173280322      19.026031213203797
   207   2        13.9098028305486      20.424058173280322      10.973968786796203
   208   2        13.9098028305486      20.424058173280322      13.657989595598734
   209   2        13.9098028305486      20.424058173280322      16.342010404401265
   210   2        13.9098028305486      20.424058173280322      19.026031213203797
   211   2      16.398026960076521      26.938313516012037                      15
   212   2      19.082047768879054      26.938313516012037                      15
   213   2      21.766068577681587      26.938313516012037                      15
   214   2      24.450089386484116      26.938313516012037                      15
   215   2      16.398026960076521        13.9098028305486                      15
   216   2      19.082047768879054        13.9098028305486                      15
   217   2      21.766068577681587        13.9098028305486                      15
   218   2      24.450089386484116        13.9098028305486                      15
   219   2      20.424058173280322      16.398026960076521      21.514255342731719
   220   2      20.424058173280322      19.082047768879054      21.514255342731719
   221   2      20.424058173280322      21.766068577681587      21.514255342731719
   222   2      20.424058173280322      24.450089386484116      21.514255342731719
   223   2      20.424058173280322      16.398026960076521      8.4857446572682811
   224   2      20.424058173280322      19.082047768879054      8.4857446572682811
   225   2      20.424058173280322      21.766068577681587      8.4857446572682811
   226   2      20.424058173280322      24.450089386484116      8.4857446572682811
   227   2      24.766895068434799      19.082047768879054      19.855439256379771
   228   2      22.595476620857561      17.740037364477789      20.684847299555745
   229   2      24.766895068434799      21.766068577681587      19.855439256379771
   230   2      22.595476620857561      20.424058173280322      20.684847299555745
   231   2      22.595476620857561      23.108078982082851      20.684847299555745
   232   2      24.766895068434799      19.082047768879054      10.144560743620229
   233   2      22.595476620857561      17.740037364477789      9.3151527004442549
   234   2      24.766895068434799      21.766068577681587      10.144560743620229
   235   2      22.595476620857561      20.424058173280322      9.3151527004442549
   236   2      22.595476620857561      23.108078982082851      9.3151527004442549
   237   2      16.081221278125842      19.082047768879054      19.855439256379771
   238   2       18.25263972570308      17.740037364477789      20.684847299555745
   239   2      16.081221278125842      21.766068577681587      19.855439256379771
   240   2       18.25263972570308      20.424058173280322      20.684847299555745
   241   2       18.25263972570308      23.108078982082851      20.684847299555745
   242   2      16.081221278125842      19.082047768879054      10.144560743620229
   243   2       18.25263972570308      17.740037364477789      9.3151527004442549
   244   2      16.081221278125842      21.766068577681587      10.144560743620229
   245   2       18.25263972570308      20.424058173280322      9.3151527004442549
   246   2       18.25263972570308      23.108078982082851      9.3151527004442549
   247   2       25.27949742966009      24.766895068434799      13.657989595598734
   248   2      26.108905472836064      22.595476620857561      12.315979191197467
   249   2       25.27949742966009      24.766895068434799      16.342010404401265
   250   2      26.108905472836064      22.595476620857561                      15
   251   2      26.108905472836064      22.595476620857561      17.684020808802533
   252   2      15.568618916900547      24.766895068434799      13.657989595598734
   253   2      14.739210873724574      22.595476620857561      12.315979191197467
   254   2      15.568618916900547      24.766895068434799      16.342010404401265
   255   2      14.739210873724574      22.595476620857561                      15
   256   2      14.739210873724574      22.595476620857561      17.684020808802533
   257   2       25.27949742966009      16.081221278125842      13.657989595598734
   258   2      26.108905472836064       18.25263972570308      12.315979191197467
   259   2       25.27949742966009      16.081221278125842      16.342010404401265
   260   2      26.108905472836064       18.25263972570308                      15
   261   2      26.108905472836064       18.25263972570308      17.684020808802533
   262   2      15.568618916900547      16.081221278125842      13.657989595598734
   263   2      14.739210873724574       18.25263972570308      12.315979191197467
   264   2      15.568618916900547      16.081221278125842      16.342010404401265
   265   2      14.739210873724574       18.25263972570308                      15
   266   2      14.739210873724574       18.25263972570308      17.684020808802533
   267   2      19.082047768879054       25.27949742966009       19.34283689515448
   268   2      17.740037364477789      26.108905472836064      17.171418447577238
   269   2      21.766068577681587       25.27949742966009       19.34283689515448
   270   2      20.424058173280322      26.108905472836064      17.171418447577238
   271   2      23.108078982082851      26.108905472836064      17.171418447577238
   272   2      19.082047768879054      15.568618916900547       19.34283689515448
   273   2      17.740037364477789      14.739210873724574      17.171418447577238
   274   2      21.766068577681587      15.568618916900547       19.34283689515448
   275   2      20.424058173280322      14.739210873724574      17.171418447577238
   276   2      23.108078982082851      14.739210873724574      17.171418447577238
   277   2      19.082047768879054       25.27949742966009       10.65716310484552
   278   2      17.740037364477789      26.108905472836064       12.82858155242276
   279   2      21.766068577681587       25.27949742966009       10.65716310484552
   280   2      20.424058173280322      26.108905472836064       12.82858155242276
   281   2      23.108078982082851      26.108905472836064       12.82858155242276
   282   2      19.082047768879054      15.568618916900547       10.65716310484552
   283   2      17.740037364477789      14.739210873724574       12.82858155242276
   284   2      21.766068577681587      15.568618916900547       10.65716310484552
   285   2      20.424058173280322      14.739210873724574       12.82858155242276
   286   2      23.108078982082851      14.739210873724574       12.82858155242276
   287   2      23.937487025258825      16.910629321301816      18.513428851978507
   288   2      23.937487025258825      23.937487025258825      18.513428851978507
   289   2      23.937487025258825      16.910629321301816      11.486571148021493
   290   2      23.937487025258825      23.937487025258825      11.486571148021493
   291   2      16.910629321301816      16.910629321301816      18.513428851978507
   292   2      16.910629321301816      23.937487025258825      18.513428851978507
   293   2      16.910629321301816      16.910629321301816      11.486571148021493
   294   2      16.910629321301816      23.937487025258825      11.486571148021493
