LAMMPS data file via write_data, version 2 Aug 2023, timestep = 45000, units = metal

294 atoms
2 atom types

0 30 xlo xhi
0 30 ylo yhi
0 30 zlo zhi

Masses

1 26.982
2 63.546

Atoms # atomic

69 1 13.632472851699896 7.695477413232947 9.958425199653952 0 0 0
96 1 12.025603401227878 9.949500094909336 8.656531953361814 0 0 0
137 1 16.42878861384783 7.675740795673816 9.363393148053646 0 0 0
146 1 10.334691278270192 13.895784003639442 8.54760717418323 0 0 0
136 1 9.299374717353054 10.948347485793347 9.97311208227264 0 0 0
29 1 14.799461940655082 9.802699786460783 8.54716033639338 0 0 0
98 1 12.962088533718218 14.463491670958698 8.063421944172877 0 0 0
77 1 13.498271829457645 11.98939892981775 7.578266650129298 0 0 0
30 1 14.227719814158657 12.81675913552834 9.999524018981047 0 0 0
38 1 11.620047536031233 12.177468767578706 10.22475019152674 0 0 0
88 1 17.519332144195175 9.81322736270461 8.048947960905496 0 0 0
135 1 16.23657633518543 12.117068305394119 8.021740455862279 0 0 0
86 1 18.651413619693844 11.872665436912056 9.245757461635927 0 0 0
31 1 15.653048628927559 14.86541261318179 7.865290977257363 0 0 0
89 1 18.462974355298144 14.517818657927835 7.832912084127258 0 0 0
223 2 16.7547688579538 13.69626589574825 9.919913516217571 0 0 0
97 1 9.138219245000656 18.409724911975385 9.11673356945989 0 0 0
116 1 8.25416963487422 15.781618969030468 9.251291378340465 0 0 0
60 1 10.969762293923397 16.409465612428104 8.623984048310263 0 0 0
78 1 13.585108577376618 16.92623816176383 8.820648278903352 0 0 0
52 1 11.705720103660134 18.89547917644472 9.666199709921603 0 0 0
207 2 14.194891110696377 19.621862278613193 8.708639386477847 0 0 0
79 1 13.652141279461224 19.18023990278614 6.328192740889466 0 0 0
132 1 15.88285795033696 17.657050669940816 7.531141623575338 0 0 0
143 1 18.71680258719426 17.158145079949012 7.353424956100835 0 0 0
224 2 17.260811933340822 16.227109097179007 9.481146684222086 0 0 0
225 2 17.601385065766028 18.83501007620789 9.054332125780395 0 0 0
235 2 19.685020050363175 16.95876275653884 9.673933378428053 0 0 0
293 2 15.446609415043747 18.16608475141964 10.207402433377021 0 0 0
76 1 20.900613138850268 15.373449679310575 8.304479957014019 0 0 0
236 2 19.98802013485164 19.500159537528376 9.229398676975485 0 0 0
35 1 23.365551770288953 16.184434219010466 8.625307723511666 0 0 0
234 2 22.182216964767292 17.961825292119038 10.005740823937375 0 0 0
147 1 11.42563555084879 23.511811535330473 9.388185870618619 0 0 0
99 1 11.87366447109963 21.062970973050014 8.469348178598397 0 0 0
242 2 14.183924360538853 21.63461532316413 7.188016230131172 0 0 0
130 1 13.78558835882933 24.02671182988574 7.995259457827181 0 0 0
244 2 13.867424592016024 22.059701834531964 9.706441670106678 0 0 0
243 2 16.32502362962923 20.208576518646545 7.236025542953571 0 0 0
245 2 16.127724904518136 20.643296234539136 9.69556068502442 0 0 0
246 2 16.21223878485978 22.69313479514022 8.216243683585112 0 0 0
226 2 18.315664795941416 21.34673765262337 8.395932898659614 0 0 0
46 1 9.959908913340668 9.159920537027098 13.41027138501412 0 0 0
115 1 11.078958694671751 9.137984967774184 11.019126985070601 0 0 0
24 1 13.434104407648585 7.2870889640714305 12.690964061869046 0 0 0
55 1 14.633322726577138 8.331532150804918 14.729787491902277 0 0 0
128 1 11.713005827165778 7.470641413257129 14.700331737628336 0 0 0
138 1 15.259253014688099 5.928988924586267 11.020924391711164 0 0 0
34 1 15.868520073225952 8.507220717389531 11.995681827922958 0 0 0
139 1 15.64580733040908 6.031541422330867 13.666547042999346 0 0 0
44 1 17.91982712236029 7.082879904683024 11.900321879747393 0 0 0
71 1 17.644712103989022 8.069935876608975 14.293643734601412 0 0 0
216 2 18.28527327832095 9.250335065587139 10.507067440568097 0 0 0
25 1 18.06658488869954 5.303721193171222 15.00688314280868 0 0 0
58 1 20.004620113634566 8.606940588175942 12.846001298237358 0 0 0
95 1 9.210960965011289 13.976656157437695 10.959362637426853 0 0 0
18 1 8.407499093186452 13.753864432982436 13.249852806628807 0 0 0
68 1 9.008926332495111 11.371643047113126 14.88394094112842 0 0 0
118 1 10.082044909017691 11.79824537066909 12.502893861838455 0 0 0
23 1 12.475990340669657 10.112598528884497 13.345766092407041 0 0 0
54 1 13.707287282992613 10.295164909809492 10.918011154197446 0 0 0
12 1 13.095508082084809 12.83921301814523 12.519263677005084 0 0 0
4 1 10.947962098625963 14.534252160034526 13.124112150419467 0 0 0
283 2 14.39375766268662 12.962737250462315 14.722209035502917 0 0 0
8 1 11.738696263613445 12.172702087243684 14.81516130493077 0 0 0
13 1 12.293474687648368 14.909234610921555 10.770120703496884 0 0 0
2 1 14.964041097449618 10.846637363334693 13.489033783386093 0 0 0
233 2 19.322095643326946 14.182593431911435 10.347866997562075 0 0 0
85 1 16.375938480743002 11.029337679516669 10.682820304388821 0 0 0
282 2 15.596378151122359 13.363067734165936 12.269091990903108 0 0 0
15 1 17.947349823877204 10.415912860060015 12.858350170069674 0 0 0
285 2 16.916290870905307 12.585129425431322 14.198650851946656 0 0 0
284 2 18.265614324400037 12.669897643142285 11.9548311662748 0 0 0
202 2 18.77926957800584 14.424704025698727 13.859690055289981 0 0 0
286 2 19.771929265647312 12.071681503235757 14.043777902208914 0 0 0
201 2 15.912739521518404 14.893425411767605 14.292739247497154 0 0 0
56 1 21.622924048320666 12.823677585504171 9.554585935529232 0 0 0
87 1 23.870394557290908 14.108333809893495 10.22483736093515 0 0 0
57 1 21.95029348544771 10.416686249825757 13.544272128072082 0 0 0
103 1 20.379073269517672 11.225475196595438 11.267596954431571 0 0 0
142 1 22.92595921118951 12.233352024931188 11.78415974106366 0 0 0
257 2 22.371939281179174 13.132996746132148 14.48658313267067 0 0 0
289 2 20.84619470506876 13.573540280919246 12.441858146264455 0 0 0
258 2 23.14594665202367 14.82478534439111 12.645098652071292 0 0 0
100 1 24.77570860143642 12.993639214257763 13.677539490374098 0 0 0
14 1 25.785839846414017 14.98756120953454 12.132383145507113 0 0 0
61 1 7.538530726198243 16.53668089157833 11.600085347374234 0 0 0
42 1 9.005037600669583 16.59163181295816 13.774842593486929 0 0 0
108 1 9.53724269116702 19.003069855177735 14.388712114126017 0 0 0
17 1 8.54042647879624 19.23053213497707 11.836172808206484 0 0 0
215 2 13.851660797703191 15.022327070794695 13.016875684649031 0 0 0
39 1 10.123760754468426 16.751288313818808 11.144588868590546 0 0 0
6 1 11.851427372381277 17.255521386799487 13.931918130975438 0 0 0
53 1 13.156654812806027 17.32058746698565 11.428789563971083 0 0 0
66 1 11.233252353423508 19.26835708332627 12.30768756294394 0 0 0
193 2 13.754697558864954 18.9605935531388 13.488115524307705 0 0 0
263 2 13.820732665069155 20.026784542166443 11.180159972332921 0 0 0
40 1 15.076663305012836 15.390890439760359 10.573437587160015 0 0 0
262 2 11.83446716236891 19.934851346983027 14.903984598415816 0 0 0
22 1 14.23641754070792 16.922931761137246 14.988325654999237 0 0 0
176 2 17.241489048230953 15.063938495164253 11.821242156250463 0 0 0
134 1 15.549905233439372 16.982502914538344 12.576988767842789 0 0 0
185 2 16.096339609703644 19.597185657522267 12.063574427288321 0 0 0
159 2 17.707873311349065 16.589877986292365 13.765308918590543 0 0 0
151 2 16.22328659709422 18.65066092037875 14.415978539640443 0 0 0
177 2 17.743982144799435 17.56651197652877 11.500779261896252 0 0 0
160 2 18.36445242928445 19.23841161389492 13.204019245666071 0 0 0
181 2 19.698231759796606 15.905077243472885 11.981929880718134 0 0 0
191 2 21.197614861030935 15.328222415906541 14.067699386102282 0 0 0
232 2 21.691883598281382 15.33618166850508 10.586184086444426 0 0 0
149 2 20.15300539823779 17.561848978204626 13.866854266695869 0 0 0
161 2 21.99729161592235 16.96486269213234 12.308378582651825 0 0 0
182 2 20.02980593253819 18.53473910808394 11.503872826558359 0 0 0
203 2 24.249807098452887 16.47158209966068 10.959093126997308 0 0 0
248 2 23.797877694936076 18.859983252003826 11.920814939459833 0 0 0
204 2 24.55436214784915 16.96395740064989 13.423790601180968 0 0 0
187 2 21.801761202896632 19.34281381781439 13.396623277014728 0 0 0
250 2 24.28482261749654 19.404855861772592 14.227388575854908 0 0 0
162 2 22.577483335502652 17.343272735952493 14.844512083669136 0 0 0
111 1 26.219795891066237 15.302293634131455 14.709601530732503 0 0 0
106 1 9.55215265322614 21.592625863937833 10.469997999095249 0 0 0
107 1 10.145151180660916 21.531512656361013 13.224779354808339 0 0 0
105 1 10.46812660709121 23.854710490624996 11.914321020989622 0 0 0
208 2 11.871022565473217 21.549016290912597 11.133715397245318 0 0 0
164 2 12.940181001590185 21.417160974034815 13.176233881750138 0 0 0
253 2 13.13702037980096 23.438888238027918 11.83852351084292 0 0 0
252 2 14.537434555811892 23.383256360646413 13.894244626322465 0 0 0
48 1 11.676066059292554 23.57379748778405 14.208597089055232 0 0 0
189 2 15.209929730888337 21.00424485616029 14.154939238974501 0 0 0
178 2 18.2879871574718 20.16070403324658 10.856560780558596 0 0 0
294 2 15.312012634395842 23.98294059894075 10.278711046775182 0 0 0
186 2 15.376922454886346 21.926320220133725 11.742918013171508 0 0 0
199 2 17.455784345534 21.52004949985171 12.837084761462338 0 0 0
277 2 17.453149068700608 22.573070544542027 10.457688785234161 0 0 0
168 2 19.22316581633169 22.35687713103184 14.639117043623397 0 0 0
280 2 19.09031122085182 23.401588751344853 12.311138090486734 0 0 0
278 2 16.567270981307804 23.97449933553816 12.514374581296089 0 0 0
212 2 18.35407161405154 24.621694735551625 14.349682336159265 0 0 0
167 2 16.75225373563649 22.8735572741809 14.837270164168478 0 0 0
200 2 20.033232509083252 21.058869801898453 12.556640374503184 0 0 0
154 2 20.029379313082984 19.893282846503578 14.850155083928078 0 0 0
279 2 19.839564493226693 22.011719309204846 10.311646235704233 0 0 0
290 2 21.87147320475077 20.120679862054327 10.997763698818678 0 0 0
247 2 23.443414023265586 21.14330935529575 12.72565629479276 0 0 0
169 2 21.71774246192507 21.77790377194276 14.310538316360466 0 0 0
281 2 21.7013253298034 22.814432658290688 11.703290069499888 0 0 0
214 2 23.378642602197864 23.494046429824046 13.599541348706467 0 0 0
213 2 20.92989480478739 23.988813674288643 13.80532752577354 0 0 0
131 1 13.052626556726775 25.309516862886507 10.102351821256063 0 0 0
133 1 14.711562144015408 25.645068143942815 12.285158438863348 0 0 0
64 1 12.124079763945462 25.93262887482287 12.631169845925237 0 0 0
65 1 13.298979739720817 25.613715375290415 15.026669199985317 0 0 0
211 2 15.840656389517836 25.455684824576974 14.596563960319708 0 0 0
51 1 12.833385838930473 8.034095609628386 16.85161551841132 0 0 0
117 1 10.745350942401943 9.84285464102617 15.970552006271491 0 0 0
70 1 16.271706135889467 6.594963707192545 16.372751968098637 0 0 0
110 1 19.480017606618713 9.772701852544808 15.31606264459841 0 0 0
127 1 16.757488649808778 7.192466109307464 19.042251349927476 0 0 0
32 1 18.63795639320936 5.935165047536309 17.549877225097312 0 0 0
217 2 18.1325781608241 8.487128565648945 17.167347544810553 0 0 0
112 1 20.077599868522007 7.2997461621655555 15.732779685564374 0 0 0
26 1 14.975063392873937 8.993719520021669 17.75518567162288 0 0 0
81 1 18.753903144189664 8.637232025196164 20.15283267012847 0 0 0
113 1 22.153938795328518 9.133138662420953 16.56801733198377 0 0 0
129 1 20.556048300163457 7.725798199806727 18.31569234389497 0 0 0
47 1 9.717117681005657 14.035208647911887 15.708705729604226 0 0 0
119 1 7.797344568202829 12.68810388209887 16.927345928039518 0 0 0
62 1 7.1311006708533675 14.931731353252454 15.260832407313911 0 0 0
36 1 8.960600033914487 13.015576358474657 19.420673957367278 0 0 0
265 2 10.467060090934208 12.045670962821774 17.394889019347513 0 1 0
9 1 13.639337312769808 10.79637028381134 16.013639399262175 0 0 0
1 1 12.501698226638522 14.918019721229506 15.344823554797866 0 0 0
10 1 10.92048826756086 14.58150271874338 18.048153191693903 0 0 0
41 1 12.939984474841157 12.903990340920094 17.352657784626054 0 0 0
50 1 12.09803020846877 10.37637735423693 18.43090169319931 0 0 0
126 1 14.435436822215724 11.158559429936624 19.185074228577264 0 0 0
170 2 14.928770480293624 14.801526608542313 16.575810628724877 0 0 0
3 1 16.590691869752355 10.205240141594516 15.39640802388505 0 0 0
33 1 17.22210166705752 10.569888111557987 18.52051085973836 0 0 0
141 1 15.111840864598015 13.877312815873053 19.021767326801232 0 0 0
273 2 15.65488935681262 12.306111956591305 17.01092088789013 0 0 0
171 2 17.49353647265259 14.186920803870045 16.208717344601684 0 0 0
45 1 18.54018923855581 11.989696561186062 16.412522723154623 0 0 0
59 1 17.65665313358784 13.189120503795667 18.733814542826064 0 0 0
275 2 19.89085800455327 10.352911453466984 17.910478479686653 0 0 0
114 1 24.000911873691866 11.292486101157625 15.516666233270486 0 0 0
102 1 21.417749131346923 11.40934926224608 16.12924404683715 0 0 0
276 2 20.556300205933788 12.7609612734735 18.495198804237578 0 0 0
172 2 20.232223590646505 13.731168421140639 15.856549445584138 0 0 0
259 2 22.542886692837264 13.556850112957154 16.926753392916133 0 0 0
104 1 24.269834459269877 13.586883232096904 19.085864638117872 0 0 0
140 1 22.824915634633783 11.307584867675583 18.439654471088843 0 0 0
287 2 21.74246331576457 14.77464568885298 19.006784508568458 0 0 0
260 2 23.741741290031097 15.089065169251622 15.059414146040744 0 0 0
218 2 25.11530317569609 13.461757686714222 16.725236997937404 0 0 0
63 1 8.268067354277335 15.178992337408076 17.818231314435756 0 0 0
43 1 7.738241631402584 17.473888464242037 16.11525932593357 0 0 0
90 1 8.360843507685917 17.764110988994275 18.83984911209495 0 0 0
20 1 10.020428191189414 19.173493755379845 17.077665991541082 0 0 0
5 1 10.19700675361275 16.57409644701134 16.221744599060116 0 0 0
7 1 13.273820566694084 15.81640990942178 18.23856649461473 0 0 0
21 1 12.403743111066019 17.863517854965966 16.584940784710287 0 0 0
264 2 10.838480116314559 17.090652672564566 18.737983794928947 0 0 0
266 2 12.917005289211344 18.17587989429841 19.54289558629935 0 0 0
165 2 14.476643298997853 19.3361984598583 15.89473545796217 0 0 0
166 2 14.698324786514561 19.78651279132594 18.48074523460877 0 0 0
145 1 10.829017147524953 19.70733494861377 19.437700492674505 0 0 0
194 2 15.010287383738886 17.497749465129058 17.614160767986423 0 0 0
198 2 19.337159281091523 14.976256945914809 18.09103579407982 0 0 0
155 2 16.652907380165217 16.61871067990558 16.08014993541547 0 0 0
183 2 16.841989058230887 18.195530395460324 19.299446957787925 0 0 0
197 2 16.759198741008795 15.602067167703703 18.341297801499085 0 0 0
157 2 18.448423659661884 17.33605823679626 17.645759338801025 0 0 0
152 2 16.627246965588146 19.075808864493247 16.93762612182952 0 0 0
148 2 18.294125942797677 18.27458930093794 15.369375163078235 0 0 0
174 2 19.237320739862874 19.069747997826777 19.60904685783574 0 0 0
156 2 19.284306497135926 15.972800319606387 15.622980651390474 0 0 0
158 2 18.980472163088933 19.716991092844477 17.16808737136678 0 0 0
179 2 20.72493659804682 17.237133032928764 18.59730641551489 0 0 0
192 2 21.455950255542596 15.747462324565786 16.635084682619897 0 0 0
150 2 20.62656424832136 18.05151889007687 16.26223376766115 0 0 0
163 2 22.80979222347615 18.013064161960745 17.38991098470507 0 0 0
261 2 23.787283493597148 15.619050868756524 17.403378985911385 0 0 0
180 2 21.303427742532552 19.72661320283186 18.173482016757298 0 0 0
229 2 23.73180246034075 19.509225544435516 19.07050763731153 0 0 0
227 2 23.11970974718915 16.813925485006756 19.570795977465878 0 0 0
251 2 24.55032280959095 19.716432026269178 16.79879664595204 0 0 0
188 2 22.372578427768154 19.88195170411343 15.765703193138084 0 0 0
205 2 24.77579873119878 17.46244051429008 15.818240818509606 0 0 0
206 2 25.172903314852697 17.490024564356574 18.323221099398747 0 0 0
209 2 12.458502711704167 20.31407115510994 17.51886775581793 0 0 0
109 1 11.312328584612112 22.281615176376107 18.602361068793673 0 0 0
92 1 10.626269985044281 21.84441825881253 16.045229493871236 0 0 0
255 2 13.387265656386392 21.795486958022405 15.540923338283196 0 0 0
121 1 12.38478743093641 24.005323279342196 16.95254433799846 0 0 0
256 2 14.053010418690425 22.35129746763114 18.311381732813572 0 0 0
254 2 14.976074191161965 23.76203790158803 16.268230766218526 0 0 0
153 2 17.487691282530168 20.513023097863535 15.226276087143221 0 0 0
184 2 17.29848795167946 20.648389538827015 18.78880222246979 0 0 0
190 2 15.781922820623 21.415919225998316 16.64398763393453 0 0 0
195 2 18.1623913780893 22.158403272233933 16.9691332882811 0 0 0
292 2 16.458074274156072 23.170291666813473 18.50609434145858 0 0 0
175 2 19.82541364122495 21.49819424555153 19.04697801727943 0 0 0
267 2 18.882785158104607 23.95025771443731 18.82345244520268 0 0 0
268 2 17.444786334640387 24.52846741300712 16.77186789717361 0 0 0
270 2 20.08188454442274 24.175367607817236 16.242830793133216 0 0 0
196 2 20.541958347431862 21.6553142501675 16.623396093484423 0 0 0
288 2 22.84697733034348 21.53743429581598 17.618540524147072 0 0 0
249 2 24.09212238638167 21.699594386530947 15.335376525540342 0 0 0
269 2 21.292039175686003 23.143021360248664 18.405680446570905 0 0 0
271 2 22.32193866813023 23.48644435913284 15.901593426482258 0 0 0
231 2 22.178253491034237 21.47098660276337 20.150656778938153 0 0 0
125 1 16.065791375154834 9.192453074135884 20.545245287857362 0 0 0
16 1 21.203432090544172 10.159117987285013 20.277404593087837 0 0 0
144 1 12.361290013543853 13.51998569823209 19.868518298024977 0 0 0
11 1 14.554365949839426 14.051327557139212 21.570103926692347 0 0 0
19 1 9.550179669618291 15.27373296616965 20.31649539312166 0 0 0
72 1 18.093892457478162 10.26529418338739 22.476980773801692 0 0 0
83 1 18.99774774753882 11.620680558871994 20.508450356355706 0 0 0
73 1 18.09135416101931 13.14530771014503 22.63621109776506 0 0 0
27 1 16.434609244956864 11.945802717745739 20.98868097173322 0 0 0
272 2 16.91403403713496 14.766760956941024 20.771847598449867 0 0 0
67 1 19.544409020453543 14.179122780386948 20.58332626054215 0 0 0
101 1 20.425640879973752 11.835567872350993 22.91579954748088 0 0 -1
84 1 21.034821049521792 14.464097459353868 22.855959779918578 0 0 0
80 1 21.753621496702678 12.695137809428866 20.800925419041633 0 0 0
274 2 23.104699610941342 15.142572633391856 21.160998468924344 0 0 0
120 1 10.463719150464348 17.532129924009624 21.22088490112854 0 0 0
49 1 12.371940031964051 15.900598951257088 21.057661328183023 0 0 0
37 1 13.906118950119572 19.185194916932364 24.542765090030358 0 0 0
94 1 14.396645389680183 17.12841156372468 22.727485369172992 0 0 0
75 1 12.552518246459389 19.103782011899032 22.07591500261312 0 0 0
237 2 14.815786032640688 19.161169149208458 20.847867392865716 0 0 0
91 1 16.347659235854433 15.443923602553777 23.351083664384838 0 0 0
124 1 15.044954985973922 16.49210329086456 20.07719781629088 0 0 0
173 2 18.561464006173843 16.47726884005585 20.104365207860283 0 0 0
93 1 17.71678920044906 17.667728952815615 24.204782384233305 0 0 0
291 2 16.031449778067365 19.205571578836217 23.028096217815246 0 0 0
238 2 16.790939077700987 17.32467718095914 21.664090974025033 0 0 0
220 2 19.371366149902546 18.177228481031886 21.949860604694617 0 0 0
219 2 18.78458158244889 15.87326374452686 22.5504251226304 0 0 0
228 2 20.926964948498874 16.294649194689462 21.095701431684304 0 0 0
230 2 21.608182895072822 18.85574655375867 20.48753095683222 0 0 0
82 1 26.669234854113746 15.81147950274046 17.19359874917269 0 0 0
123 1 13.033093495969911 20.96035900731115 20.214025118825756 0 0 0
210 2 14.210011278106446 21.18158913132272 22.61661212372028 0 0 0
240 2 17.292252336811043 19.95653030402247 21.18784206116914 0 0 0
28 1 18.53423472823857 20.093431347509924 23.514304255056043 0 0 0
122 1 16.51411728704002 21.894555248774275 22.77929621945917 0 0 0
239 2 15.5462531478373 21.487119130443606 20.258424678566254 0 0 0
241 2 17.991792063590225 22.309729535456654 20.56794280845861 0 0 0
221 2 19.812401782606607 20.703508908111743 21.466387520354157 0 0 0
222 2 20.185881322500627 23.140637639311663 20.780688272219617 0 0 0
74 1 15.99207804788708 20.839966391927195 25.302281960947063 0 0 0

Velocities

69 0.9174330987306755 -2.9564191380686746 0.48303011779142757
96 2.48797752824722 -0.6435089421054473 1.804906036610033
137 2.172805748849284 1.7802337517327227 1.1379571104178707
146 3.5532334323750234 2.685596287091834 -1.4387531850279718
136 -3.69014905564977 5.346883233988441 -2.345012356579442
29 -0.6380007169114729 5.939398208920536 0.6477570818450319
98 -1.3043957097756582 -1.909574006565967 -3.004491786732752
77 -4.132398949500531 -1.7409767081923637 -0.9443667694857141
30 1.8357992125452047 2.6578310016965436 2.0798370988328063
38 -0.5974544473196706 4.09735003471365 -1.1247392818293582
88 1.539241278994629 -4.529178016844478 0.2971829575311341
135 -2.1554075909367727 -0.9362304005748515 2.358865673027164
86 0.03269845377865091 7.340552460393616 0.6053628902054219
31 0.5332350380750194 -1.6280824370588771 -3.009304632751513
89 3.4175970999346683 2.5210021712243726 3.686375303680421
223 1.3881193084884125 0.5698183615035617 -1.5478072115370263
97 -3.3548498750858804 4.426783110834695 1.4020146655211148
116 2.2888762564359193 -1.2845984039678895 0.19502603636206992
60 0.5975983877459581 -0.5539450835909973 -2.94842585187776
78 -0.0071448984025665255 -1.5937011184308503 -2.780836231865832
52 1.8734461055169918 3.2943455316516905 -1.644367014401611
207 -0.2839900058592248 0.7566623698283742 -2.5569656953142332
79 2.215327210326864 -1.7976975387563945 1.6424405974141374
132 3.5855623755010244 -4.586863642339855 0.42978367738135964
143 -5.326345588699312 5.296770366042655 3.8073625088032577
224 1.1658118050648865 -1.6107722685681087 2.376497581253613
225 1.1400044579253352 -0.6490219572626043 0.9398550640939863
235 -2.3982759679020558 -1.5310259408579152 -0.6360153033020788
293 -0.6958540360306962 0.4932175994755955 2.285995551814242
76 -2.426035365871896 -0.28451354471054174 -5.760611453437604
236 -2.9842994406444183 -2.4667849050719735 -1.6170936142975
35 -0.40753836048142783 4.424747535755744 1.9829044319037876
234 -0.10638466624510516 -3.3600279781034383 1.5634112163730831
147 -2.0828335097905595 -3.926485499446893 -0.8819685794611529
99 2.648523754993834 -1.7144668099682256 0.08153132779882179
242 0.27971510928346927 -1.0542066742906677 -4.299926621084706
130 1.8561857324770614 -4.849729521132057 -0.15787551255456608
244 0.7219694011244061 1.6097006087912602 1.7654085683200211
243 -0.1291423561155987 -2.455164375066563 0.7565929508487003
245 1.5398650075925386 0.1335832638459666 1.6932130484048697
246 -0.918468214202836 0.3014642290308546 -0.27772813161055065
226 1.1401039968648656 -1.9738398449276264 -2.405554510270562
46 -0.9784914304296134 -3.6482326827148195 -0.8249752911658179
115 -5.338828683683071 1.8820305797287844 -1.9134409377439956
24 2.263656497980626 1.2438199813079234 -1.0523635161147502
55 4.33691199531037 5.635017847020252 -0.8820431650693761
128 -1.9653663654857978 -0.9209451850600936 -1.825390549757846
138 0.5252555151212726 3.2282566304317233 2.7616497891141565
34 -3.880428666923111 0.9716657415810284 -1.693473172771373
139 4.295057419489091 -1.2653408946578293 3.260827094953754
44 -5.7698104613257515 4.663113429066523 3.200979811396608
71 1.1567885506739717 -4.143037180343409 -4.651639951746477
216 4.388686647572718 0.14561304650626575 -2.3220124982236974
25 4.869273335008175 -2.249094300490978 -5.706675894937868
58 1.9116741377955737 -0.40283043284143155 -0.1359873885268965
95 0.7787813781338937 4.920617182857786 0.7753587938309575
18 2.7571890645330694 3.9081635053159354 -1.0988988491100597
68 5.63335186615378 -5.127334216882526 0.27375569443420517
118 -0.7513844158870292 0.8839536174452541 2.8899796289748982
23 0.3131288236558785 4.166869933561661 4.299240252766181
54 0.21450462188081384 4.377977579162301 2.8024604872836933
12 4.049407928266913 -3.217387690650435 2.7407906963652304
4 -2.013867742959928 -1.464931067968725 2.5177856674429275
283 -1.3877350033302083 0.5640006913068403 1.7748859002175579
8 -1.873931540985395 -1.9912373430442876 0.10898598113074584
13 0.0443938239469437 1.3253913784825195 -0.2538483978438703
2 0.5964589123819702 -0.3542939252800859 1.0946309882206966
233 0.24587760804412293 -2.6254107602697374 1.019558519547593
85 -0.3007953380882728 -3.0976453438518723 -6.395339798627731
282 2.8861553375538076 1.6075430800751134 -2.092987133811508
15 -1.0246243542984743 5.762235665715638 0.6627730890471277
285 -1.987419006245166 2.7628702278159225 -1.094198021499611
284 0.785345028952492 -1.1505918230911008 -1.7598232074295004
202 -3.0443010169768008 -1.550934203839144 -0.5390036131892757
286 -2.6142431964712496 4.502861096308168 -1.4426487602931353
201 2.1224629364351517 -3.1104130513871406 -0.3932851878830287
56 1.276010131579782 -2.4676640151039826 1.5821731203064997
87 -2.3843939060547905 0.4516770638735998 -0.12610312181945643
57 -2.3974813388878187 -1.3096750024815074 3.571007582356915
103 -2.762646364652673 2.200975223377559 -1.9367330418956283
142 -8.801035000920129 2.991163975861477 1.7384398432950223
257 3.830664628376541 -0.5175082702697138 0.01520434563442084
289 1.02968805905545 -1.5329460921276188 -0.7644227461184917
258 -1.4589539531549265 0.4255035700492165 3.434483790357782
100 -0.970997274770699 -1.3562926206503856 -1.1152674732668872
14 1.6528011052468137 -1.9364284170732688 -1.9355973551320287
61 -2.658381906266453 0.683293689261418 -1.290644674878113
42 2.3892267854554348 1.0131126287381034 0.9321800568640297
108 -7.206122975316568 8.192856221446458 -4.191222254917814
17 1.7391800055973863 1.6185653948160403 0.20580687388572602
215 3.1635429302987674 -1.1054183307000964 -0.3922742752582241
39 -5.097919715447779 2.2979403275289174 -3.4535646041326475
6 6.038910071528466 -2.0888263441535755 -0.6037784931171052
53 -1.5915683318017964 -0.23663363168898877 -2.272801760716293
66 6.279448155607971 -0.6744260511436498 2.727184172034154
193 0.8969467441292887 -2.597000039334574 2.0449489847747953
263 -0.5503608147733704 -1.230567242360246 -0.9298428187038817
40 3.612162962974121 0.6655619751277099 -2.9870877865215397
262 -1.2314045093309447 2.637795217881082 -0.9495354729587218
22 -1.022569343669676 1.098326123864507 1.3522274509491075
176 2.1260743662767916 2.945247314236869 1.8321320407771173
134 -0.4971835344453974 1.6037654379289394 -3.952013815472861
185 -2.3817976003366654 1.252136198052972 2.607518186695589
159 2.2405470207641174 1.6045103995702121 0.5388645095563415
151 -0.3399927168649555 2.957527665107093 -0.3347309595183028
177 0.8290940772961252 3.2420750304839254 2.7968506281533383
160 -2.483921005807309 0.6806782183767274 2.6937731516331453
181 1.5034598732853586 -0.8251959006135935 -0.925421161926387
191 1.6050584142095798 -0.3051106482859136 2.8284188559121297
232 -1.4430227438275562 -0.5285377431528283 0.7327917675920821
149 -0.3584055849114445 0.17612594655595118 -2.4168559233393654
161 2.1449502333418353 -0.3135935003133272 0.6814773728887572
182 -0.3738095391312133 0.9942749727343141 -0.6925740964229822
203 1.302689111358347 0.8986693399443875 1.2444883735214443
248 0.4765275096219252 0.4130589200751286 0.41564022773829556
204 -0.11519296525431164 2.505160673697719 0.34709072736487645
187 -3.473448566885465 0.9791263974358436 -4.471163878588271
250 -3.5269585900605964 0.7292061460404915 1.1905257269704714
162 -0.38820009363664754 -3.298851262840405 -0.07709501246326024
111 4.2434674365531055 0.7200805184805715 -1.588775725330474
106 2.055088137412624 3.213574330373139 -0.33511501834650353
107 -0.76353833999178 7.267260581892385 2.6524526932299413
105 2.461665337610237 1.1868839356077625 -0.08131225417910455
208 1.4930473603190761 2.0838918213037076 -0.17589421481516948
164 -1.4933192141726002 0.689483395560822 1.7845599701885402
253 0.841015255067235 -0.2834097401535841 0.049048143034080345
252 0.13901699998909278 1.1208339628042796 -2.6024171200142505
48 4.293974865631684 -1.0846024739522446 3.5242887297203565
189 1.4026010061537466 -1.2140440972165873 -2.194483568441693
178 0.4508962697783878 0.596972486523384 3.3896055047307803
294 0.5150244730387673 -1.1771218750228072 -0.10805164373408895
186 -0.8139201815392575 -2.1524500964693853 0.5973434276237415
199 -0.8577269475846712 -1.579378705951406 -0.36068854828385927
277 1.641103638168845 -1.943275331535234 1.5008583751953637
168 -0.6760732400024027 -2.0721477483070894 -0.9915655028577574
280 -0.2770461958420797 0.06205004353551567 -0.20452850741013645
278 -0.9361981159754046 0.9574551492995022 -1.6605534447899848
212 0.2007303285671066 3.2487041565397123 0.4742693681865305
167 -3.166396237396845 -2.3138330010456825 0.8835672865418237
200 -0.07946571535978265 -0.9283844990698238 -5.432329526745252
154 2.7746377637159334 -1.3936375094572933 0.4399373570377346
279 -1.9656132388811918 1.1420339168075282 1.2303792537211085
290 -2.570674768084389 -3.191413421909738 1.0826708568471692
247 -2.4887438996172304 -0.7255745944279187 -1.0338274070663005
169 -2.770077955684604 -1.1542104005122296 2.2231360885003197
281 -4.034353614130362 0.9735202373398494 -3.6478313608159345
214 -2.433396501977285 -0.9581478842705957 -0.6718044911768519
213 2.2010355083877067 -0.3099968187052882 0.23763316161953996
131 1.9012448697678 2.0521428270295874 1.378452712793153
133 0.08363930603118909 0.9295755316108626 2.0059282983074143
64 -4.0268475283782195 0.7655212978878769 1.6479472907949757
65 0.7727292896257058 1.6740304095454155 0.9152737590349215
211 0.26846655282024173 -1.8417918410811696 -0.5252412490168246
51 4.678240563647805 -0.8050647985442905 2.466655067160519